    1C
    1UModel: beam     Date: 10-Mar-1998                                 
    1UUSER                                                              
    1UDATE              09.february.2019                                
    1UTIME              14:43:07                                        
    1UHOST                                                              
    1UPGM               CalculiX                                        
    1UVERSION           Version 2.12                             
    1UCOMPILETIME       So 2. Apr 15:03:04 CEST 2017                    
    1UDIR                                                               
    1UDBN                                                               
    1UMAT    1EL                                                        
    2C                           261                                     1
 -1         1 0.00000E+00 0.00000E+00 0.00000E+00
 -1         2 1.00000E+00 0.00000E+00 0.00000E+00
 -1         3 1.00000E+00 1.50000E+00 0.00000E+00
 -1         4 0.00000E+00 1.50000E+00 0.00000E+00
 -1         5 0.00000E+00 0.00000E+00 8.00000E+00
 -1         6 1.00000E+00 0.00000E+00 8.00000E+00
 -1         7 1.00000E+00 1.50000E+00 8.00000E+00
 -1         8 0.00000E+00 1.50000E+00 8.00000E+00
 -1         9 2.50000E-01 0.00000E+00 0.00000E+00
 -1        10 5.00000E-01 0.00000E+00 0.00000E+00
 -1        11 7.50000E-01 0.00000E+00 0.00000E+00
 -1        12 1.00000E+00 3.75000E-01 0.00000E+00
 -1        13 1.00000E+00 7.50000E-01 0.00000E+00
 -1        14 1.00000E+00 1.12500E+00 0.00000E+00
 -1        15 7.50000E-01 1.50000E+00 0.00000E+00
 -1        16 5.00000E-01 1.50000E+00 0.00000E+00
 -1        17 2.50000E-01 1.50000E+00 0.00000E+00
 -1        18 0.00000E+00 1.12500E+00 0.00000E+00
 -1        19 0.00000E+00 7.50000E-01 0.00000E+00
 -1        20 0.00000E+00 3.75000E-01 0.00000E+00
 -1        21 2.50000E-01 0.00000E+00 8.00000E+00
 -1        22 5.00000E-01 0.00000E+00 8.00000E+00
 -1        23 7.50000E-01 0.00000E+00 8.00000E+00
 -1        24 1.00000E+00 3.75000E-01 8.00000E+00
 -1        25 1.00000E+00 7.50000E-01 8.00000E+00
 -1        26 1.00000E+00 1.12500E+00 8.00000E+00
 -1        27 7.50000E-01 1.50000E+00 8.00000E+00
 -1        28 5.00000E-01 1.50000E+00 8.00000E+00
 -1        29 2.50000E-01 1.50000E+00 8.00000E+00
 -1        30 0.00000E+00 1.12500E+00 8.00000E+00
 -1        31 0.00000E+00 7.50000E-01 8.00000E+00
 -1        32 0.00000E+00 3.75000E-01 8.00000E+00
 -1        33 1.00000E+00 0.00000E+00 5.00000E-01
 -1        34 1.00000E+00 0.00000E+00 1.00000E+00
 -1        35 1.00000E+00 0.00000E+00 1.50000E+00
 -1        36 1.00000E+00 0.00000E+00 2.00000E+00
 -1        37 1.00000E+00 0.00000E+00 2.50000E+00
 -1        38 1.00000E+00 0.00000E+00 3.00000E+00
 -1        39 1.00000E+00 0.00000E+00 3.50000E+00
 -1        40 1.00000E+00 0.00000E+00 4.00000E+00
 -1        41 1.00000E+00 0.00000E+00 4.50000E+00
 -1        42 1.00000E+00 0.00000E+00 5.00000E+00
 -1        43 1.00000E+00 0.00000E+00 5.50000E+00
 -1        44 1.00000E+00 0.00000E+00 6.00000E+00
 -1        45 1.00000E+00 0.00000E+00 6.50000E+00
 -1        46 1.00000E+00 0.00000E+00 7.00000E+00
 -1        47 1.00000E+00 0.00000E+00 7.50000E+00
 -1        48 0.00000E+00 0.00000E+00 7.50000E+00
 -1        49 0.00000E+00 0.00000E+00 7.00000E+00
 -1        50 0.00000E+00 0.00000E+00 6.50000E+00
 -1        51 0.00000E+00 0.00000E+00 6.00000E+00
 -1        52 0.00000E+00 0.00000E+00 5.50000E+00
 -1        53 0.00000E+00 0.00000E+00 5.00000E+00
 -1        54 0.00000E+00 0.00000E+00 4.50000E+00
 -1        55 0.00000E+00 0.00000E+00 4.00000E+00
 -1        56 0.00000E+00 0.00000E+00 3.50000E+00
 -1        57 0.00000E+00 0.00000E+00 3.00000E+00
 -1        58 0.00000E+00 0.00000E+00 2.50000E+00
 -1        59 0.00000E+00 0.00000E+00 2.00000E+00
 -1        60 0.00000E+00 0.00000E+00 1.50000E+00
 -1        61 0.00000E+00 0.00000E+00 1.00000E+00
 -1        62 0.00000E+00 0.00000E+00 5.00000E-01
 -1        63 1.00000E+00 1.50000E+00 5.00000E-01
 -1        64 1.00000E+00 1.50000E+00 1.00000E+00
 -1        65 1.00000E+00 1.50000E+00 1.50000E+00
 -1        66 1.00000E+00 1.50000E+00 2.00000E+00
 -1        67 1.00000E+00 1.50000E+00 2.50000E+00
 -1        68 1.00000E+00 1.50000E+00 3.00000E+00
 -1        69 1.00000E+00 1.50000E+00 3.50000E+00
 -1        70 1.00000E+00 1.50000E+00 4.00000E+00
 -1        71 1.00000E+00 1.50000E+00 4.50000E+00
 -1        72 1.00000E+00 1.50000E+00 5.00000E+00
 -1        73 1.00000E+00 1.50000E+00 5.50000E+00
 -1        74 1.00000E+00 1.50000E+00 6.00000E+00
 -1        75 1.00000E+00 1.50000E+00 6.50000E+00
 -1        76 1.00000E+00 1.50000E+00 7.00000E+00
 -1        77 1.00000E+00 1.50000E+00 7.50000E+00
 -1        78 0.00000E+00 1.50000E+00 5.00000E-01
 -1        79 0.00000E+00 1.50000E+00 1.00000E+00
 -1        80 0.00000E+00 1.50000E+00 1.50000E+00
 -1        81 0.00000E+00 1.50000E+00 2.00000E+00
 -1        82 0.00000E+00 1.50000E+00 2.50000E+00
 -1        83 0.00000E+00 1.50000E+00 3.00000E+00
 -1        84 0.00000E+00 1.50000E+00 3.50000E+00
 -1        85 0.00000E+00 1.50000E+00 4.00000E+00
 -1        86 0.00000E+00 1.50000E+00 4.50000E+00
 -1        87 0.00000E+00 1.50000E+00 5.00000E+00
 -1        88 0.00000E+00 1.50000E+00 5.50000E+00
 -1        89 0.00000E+00 1.50000E+00 6.00000E+00
 -1        90 0.00000E+00 1.50000E+00 6.50000E+00
 -1        91 0.00000E+00 1.50000E+00 7.00000E+00
 -1        92 0.00000E+00 1.50000E+00 7.50000E+00
 -1        93 5.00000E-01 3.75000E-01 0.00000E+00
 -1        94 2.50000E-01 7.50000E-01 0.00000E+00
 -1        95 5.00000E-01 7.50000E-01 0.00000E+00
 -1        96 7.50000E-01 7.50000E-01 0.00000E+00
 -1        97 5.00000E-01 1.12500E+00 0.00000E+00
 -1        98 5.00000E-01 3.75000E-01 8.00000E+00
 -1        99 2.50000E-01 7.50000E-01 8.00000E+00
 -1       100 5.00000E-01 7.50000E-01 8.00000E+00
 -1       101 7.50000E-01 7.50000E-01 8.00000E+00
 -1       102 5.00000E-01 1.12500E+00 8.00000E+00
 -1       103 5.00000E-01 0.00000E+00 5.00000E-01
 -1       104 2.50000E-01 0.00000E+00 1.00000E+00
 -1       105 5.00000E-01 0.00000E+00 1.00000E+00
 -1       106 7.50000E-01 0.00000E+00 1.00000E+00
 -1       107 5.00000E-01 0.00000E+00 1.50000E+00
 -1       108 2.50000E-01 0.00000E+00 2.00000E+00
 -1       109 5.00000E-01 0.00000E+00 2.00000E+00
 -1       110 7.50000E-01 0.00000E+00 2.00000E+00
 -1       111 5.00000E-01 0.00000E+00 2.50000E+00
 -1       112 2.50000E-01 0.00000E+00 3.00000E+00
 -1       113 5.00000E-01 0.00000E+00 3.00000E+00
 -1       114 7.50000E-01 0.00000E+00 3.00000E+00
 -1       115 5.00000E-01 0.00000E+00 3.50000E+00
 -1       116 2.50000E-01 0.00000E+00 4.00000E+00
 -1       117 5.00000E-01 0.00000E+00 4.00000E+00
 -1       118 7.50000E-01 0.00000E+00 4.00000E+00
 -1       119 5.00000E-01 0.00000E+00 4.50000E+00
 -1       120 2.50000E-01 0.00000E+00 5.00000E+00
 -1       121 5.00000E-01 0.00000E+00 5.00000E+00
 -1       122 7.50000E-01 0.00000E+00 5.00000E+00
 -1       123 5.00000E-01 0.00000E+00 5.50000E+00
 -1       124 2.50000E-01 0.00000E+00 6.00000E+00
 -1       125 5.00000E-01 0.00000E+00 6.00000E+00
 -1       126 7.50000E-01 0.00000E+00 6.00000E+00
 -1       127 5.00000E-01 0.00000E+00 6.50000E+00
 -1       128 2.50000E-01 0.00000E+00 7.00000E+00
 -1       129 5.00000E-01 0.00000E+00 7.00000E+00
 -1       130 7.50000E-01 0.00000E+00 7.00000E+00
 -1       131 5.00000E-01 0.00000E+00 7.50000E+00
 -1       132 1.00000E+00 7.50000E-01 5.00000E-01
 -1       133 1.00000E+00 3.75000E-01 1.00000E+00
 -1       134 1.00000E+00 7.50000E-01 1.00000E+00
 -1       135 1.00000E+00 1.12500E+00 1.00000E+00
 -1       136 1.00000E+00 7.50000E-01 1.50000E+00
 -1       137 1.00000E+00 3.75000E-01 2.00000E+00
 -1       138 1.00000E+00 7.50000E-01 2.00000E+00
 -1       139 1.00000E+00 1.12500E+00 2.00000E+00
 -1       140 1.00000E+00 7.50000E-01 2.50000E+00
 -1       141 1.00000E+00 3.75000E-01 3.00000E+00
 -1       142 1.00000E+00 7.50000E-01 3.00000E+00
 -1       143 1.00000E+00 1.12500E+00 3.00000E+00
 -1       144 1.00000E+00 7.50000E-01 3.50000E+00
 -1       145 1.00000E+00 3.75000E-01 4.00000E+00
 -1       146 1.00000E+00 7.50000E-01 4.00000E+00
 -1       147 1.00000E+00 1.12500E+00 4.00000E+00
 -1       148 1.00000E+00 7.50000E-01 4.50000E+00
 -1       149 1.00000E+00 3.75000E-01 5.00000E+00
 -1       150 1.00000E+00 7.50000E-01 5.00000E+00
 -1       151 1.00000E+00 1.12500E+00 5.00000E+00
 -1       152 1.00000E+00 7.50000E-01 5.50000E+00
 -1       153 1.00000E+00 3.75000E-01 6.00000E+00
 -1       154 1.00000E+00 7.50000E-01 6.00000E+00
 -1       155 1.00000E+00 1.12500E+00 6.00000E+00
 -1       156 1.00000E+00 7.50000E-01 6.50000E+00
 -1       157 1.00000E+00 3.75000E-01 7.00000E+00
 -1       158 1.00000E+00 7.50000E-01 7.00000E+00
 -1       159 1.00000E+00 1.12500E+00 7.00000E+00
 -1       160 1.00000E+00 7.50000E-01 7.50000E+00
 -1       161 5.00000E-01 1.50000E+00 5.00000E-01
 -1       162 7.50000E-01 1.50000E+00 1.00000E+00
 -1       163 5.00000E-01 1.50000E+00 1.00000E+00
 -1       164 2.50000E-01 1.50000E+00 1.00000E+00
 -1       165 5.00000E-01 1.50000E+00 1.50000E+00
 -1       166 7.50000E-01 1.50000E+00 2.00000E+00
 -1       167 5.00000E-01 1.50000E+00 2.00000E+00
 -1       168 2.50000E-01 1.50000E+00 2.00000E+00
 -1       169 5.00000E-01 1.50000E+00 2.50000E+00
 -1       170 7.50000E-01 1.50000E+00 3.00000E+00
 -1       171 5.00000E-01 1.50000E+00 3.00000E+00
 -1       172 2.50000E-01 1.50000E+00 3.00000E+00
 -1       173 5.00000E-01 1.50000E+00 3.50000E+00
 -1       174 7.50000E-01 1.50000E+00 4.00000E+00
 -1       175 5.00000E-01 1.50000E+00 4.00000E+00
 -1       176 2.50000E-01 1.50000E+00 4.00000E+00
 -1       177 5.00000E-01 1.50000E+00 4.50000E+00
 -1       178 7.50000E-01 1.50000E+00 5.00000E+00
 -1       179 5.00000E-01 1.50000E+00 5.00000E+00
 -1       180 2.50000E-01 1.50000E+00 5.00000E+00
 -1       181 5.00000E-01 1.50000E+00 5.50000E+00
 -1       182 7.50000E-01 1.50000E+00 6.00000E+00
 -1       183 5.00000E-01 1.50000E+00 6.00000E+00
 -1       184 2.50000E-01 1.50000E+00 6.00000E+00
 -1       185 5.00000E-01 1.50000E+00 6.50000E+00
 -1       186 7.50000E-01 1.50000E+00 7.00000E+00
 -1       187 5.00000E-01 1.50000E+00 7.00000E+00
 -1       188 2.50000E-01 1.50000E+00 7.00000E+00
 -1       189 5.00000E-01 1.50000E+00 7.50000E+00
 -1       190 0.00000E+00 7.50000E-01 5.00000E-01
 -1       191 0.00000E+00 1.12500E+00 1.00000E+00
 -1       192 0.00000E+00 7.50000E-01 1.00000E+00
 -1       193 0.00000E+00 3.75000E-01 1.00000E+00
 -1       194 0.00000E+00 7.50000E-01 1.50000E+00
 -1       195 0.00000E+00 1.12500E+00 2.00000E+00
 -1       196 0.00000E+00 7.50000E-01 2.00000E+00
 -1       197 0.00000E+00 3.75000E-01 2.00000E+00
 -1       198 0.00000E+00 7.50000E-01 2.50000E+00
 -1       199 0.00000E+00 1.12500E+00 3.00000E+00
 -1       200 0.00000E+00 7.50000E-01 3.00000E+00
 -1       201 0.00000E+00 3.75000E-01 3.00000E+00
 -1       202 0.00000E+00 7.50000E-01 3.50000E+00
 -1       203 0.00000E+00 1.12500E+00 4.00000E+00
 -1       204 0.00000E+00 7.50000E-01 4.00000E+00
 -1       205 0.00000E+00 3.75000E-01 4.00000E+00
 -1       206 0.00000E+00 7.50000E-01 4.50000E+00
 -1       207 0.00000E+00 1.12500E+00 5.00000E+00
 -1       208 0.00000E+00 7.50000E-01 5.00000E+00
 -1       209 0.00000E+00 3.75000E-01 5.00000E+00
 -1       210 0.00000E+00 7.50000E-01 5.50000E+00
 -1       211 0.00000E+00 1.12500E+00 6.00000E+00
 -1       212 0.00000E+00 7.50000E-01 6.00000E+00
 -1       213 0.00000E+00 3.75000E-01 6.00000E+00
 -1       214 0.00000E+00 7.50000E-01 6.50000E+00
 -1       215 0.00000E+00 1.12500E+00 7.00000E+00
 -1       216 0.00000E+00 7.50000E-01 7.00000E+00
 -1       217 0.00000E+00 3.75000E-01 7.00000E+00
 -1       218 0.00000E+00 7.50000E-01 7.50000E+00
 -1       219 5.00000E-01 7.50000E-01 5.00000E-01
 -1       220 5.00000E-01 3.75000E-01 1.00000E+00
 -1       221 2.50000E-01 7.50000E-01 1.00000E+00
 -1       222 5.00000E-01 7.50000E-01 1.00000E+00
 -1       223 7.50000E-01 7.50000E-01 1.00000E+00
 -1       224 5.00000E-01 1.12500E+00 1.00000E+00
 -1       225 5.00000E-01 7.50000E-01 1.50000E+00
 -1       226 5.00000E-01 3.75000E-01 2.00000E+00
 -1       227 2.50000E-01 7.50000E-01 2.00000E+00
 -1       228 5.00000E-01 7.50000E-01 2.00000E+00
 -1       229 7.50000E-01 7.50000E-01 2.00000E+00
 -1       230 5.00000E-01 1.12500E+00 2.00000E+00
 -1       231 5.00000E-01 7.50000E-01 2.50000E+00
 -1       232 5.00000E-01 3.75000E-01 3.00000E+00
 -1       233 2.50000E-01 7.50000E-01 3.00000E+00
 -1       234 5.00000E-01 7.50000E-01 3.00000E+00
 -1       235 7.50000E-01 7.50000E-01 3.00000E+00
 -1       236 5.00000E-01 1.12500E+00 3.00000E+00
 -1       237 5.00000E-01 7.50000E-01 3.50000E+00
 -1       238 5.00000E-01 3.75000E-01 4.00000E+00
 -1       239 2.50000E-01 7.50000E-01 4.00000E+00
 -1       240 5.00000E-01 7.50000E-01 4.00000E+00
 -1       241 7.50000E-01 7.50000E-01 4.00000E+00
 -1       242 5.00000E-01 1.12500E+00 4.00000E+00
 -1       243 5.00000E-01 7.50000E-01 4.50000E+00
 -1       244 5.00000E-01 3.75000E-01 5.00000E+00
 -1       245 2.50000E-01 7.50000E-01 5.00000E+00
 -1       246 5.00000E-01 7.50000E-01 5.00000E+00
 -1       247 7.50000E-01 7.50000E-01 5.00000E+00
 -1       248 5.00000E-01 1.12500E+00 5.00000E+00
 -1       249 5.00000E-01 7.50000E-01 5.50000E+00
 -1       250 5.00000E-01 3.75000E-01 6.00000E+00
 -1       251 2.50000E-01 7.50000E-01 6.00000E+00
 -1       252 5.00000E-01 7.50000E-01 6.00000E+00
 -1       253 7.50000E-01 7.50000E-01 6.00000E+00
 -1       254 5.00000E-01 1.12500E+00 6.00000E+00
 -1       255 5.00000E-01 7.50000E-01 6.50000E+00
 -1       256 5.00000E-01 3.75000E-01 7.00000E+00
 -1       257 2.50000E-01 7.50000E-01 7.00000E+00
 -1       258 5.00000E-01 7.50000E-01 7.00000E+00
 -1       259 7.50000E-01 7.50000E-01 7.00000E+00
 -1       260 5.00000E-01 1.12500E+00 7.00000E+00
 -1       261 5.00000E-01 7.50000E-01 7.50000E+00
 -3
    3C                            32                                     1
 -1         1    4    0    1
 -2         1        10        95        19        61       105       222       192         9        93
 -2        94        20        62       103       219       190       104       220       221       193
 -1         2    4    0    1
 -2        10         2        13        95       105        34       134       222        11        12
 -2        96        93       103        33       132       219       106       133       223       220
 -1         3    4    0    1
 -2        19        95        16         4       192       222       163        79        94        97
 -2        17        18       190       219       161        78       221       224       164       191
 -1         4    4    0    1
 -2        95        13         3        16       222       134        64       163        96        14
 -2        15        97       219       132        63       161       223       135       162       224
 -1         5    4    0    1
 -2        61       105       222       192        59       109       228       196       104       220
 -2       221       193        60       107       225       194       108       226       227       197
 -1         6    4    0    1
 -2       105        34       134       222       109        36       138       228       106       133
 -2       223       220       107        35       136       225       110       137       229       226
 -1         7    4    0    1
 -2       192       222       163        79       196       228       167        81       221       224
 -2       164       191       194       225       165        80       227       230       168       195
 -1         8    4    0    1
 -2       222       134        64       163       228       138        66       167       223       135
 -2       162       224       225       136        65       165       229       139       166       230
 -1         9    4    0    1
 -2        59       109       228       196        57       113       234       200       108       226
 -2       227       197        58       111       231       198       112       232       233       201
 -1        10    4    0    1
 -2       109        36       138       228       113        38       142       234       110       137
 -2       229       226       111        37       140       231       114       141       235       232
 -1        11    4    0    1
 -2       196       228       167        81       200       234       171        83       227       230
 -2       168       195       198       231       169        82       233       236       172       199
 -1        12    4    0    1
 -2       228       138        66       167       234       142        68       171       229       139
 -2       166       230       231       140        67       169       235       143       170       236
 -1        13    4    0    1
 -2        57       113       234       200        55       117       240       204       112       232
 -2       233       201        56       115       237       202       116       238       239       205
 -1        14    4    0    1
 -2       113        38       142       234       117        40       146       240       114       141
 -2       235       232       115        39       144       237       118       145       241       238
 -1        15    4    0    1
 -2       200       234       171        83       204       240       175        85       233       236
 -2       172       199       202       237       173        84       239       242       176       203
 -1        16    4    0    1
 -2       234       142        68       171       240       146        70       175       235       143
 -2       170       236       237       144        69       173       241       147       174       242
 -1        17    4    0    1
 -2        55       117       240       204        53       121       246       208       116       238
 -2       239       205        54       119       243       206       120       244       245       209
 -1        18    4    0    1
 -2       117        40       146       240       121        42       150       246       118       145
 -2       241       238       119        41       148       243       122       149       247       244
 -1        19    4    0    1
 -2       204       240       175        85       208       246       179        87       239       242
 -2       176       203       206       243       177        86       245       248       180       207
 -1        20    4    0    1
 -2       240       146        70       175       246       150        72       179       241       147
 -2       174       242       243       148        71       177       247       151       178       248
 -1        21    4    0    1
 -2        53       121       246       208        51       125       252       212       120       244
 -2       245       209        52       123       249       210       124       250       251       213
 -1        22    4    0    1
 -2       121        42       150       246       125        44       154       252       122       149
 -2       247       244       123        43       152       249       126       153       253       250
 -1        23    4    0    1
 -2       208       246       179        87       212       252       183        89       245       248
 -2       180       207       210       249       181        88       251       254       184       211
 -1        24    4    0    1
 -2       246       150        72       179       252       154        74       183       247       151
 -2       178       248       249       152        73       181       253       155       182       254
 -1        25    4    0    1
 -2        51       125       252       212        49       129       258       216       124       250
 -2       251       213        50       127       255       214       128       256       257       217
 -1        26    4    0    1
 -2       125        44       154       252       129        46       158       258       126       153
 -2       253       250       127        45       156       255       130       157       259       256
 -1        27    4    0    1
 -2       212       252       183        89       216       258       187        91       251       254
 -2       184       211       214       255       185        90       257       260       188       215
 -1        28    4    0    1
 -2       252       154        74       183       258       158        76       187       253       155
 -2       182       254       255       156        75       185       259       159       186       260
 -1        29    4    0    1
 -2        49       129       258       216         5        22       100        31       128       256
 -2       257       217        48       131       261       218        21        98        99        32
 -1        30    4    0    1
 -2       129        46       158       258        22         6        25       100       130       157
 -2       259       256       131        47       160       261        23        24       101        98
 -1        31    4    0    1
 -2       216       258       187        91        31       100        28         8       257       260
 -2       188       215       218       261       189        92        99       102        29        30
 -1        32    4    0    1
 -2       258       158        76       187       100        25         7        28       259       159
 -2       186       260       261       160        77       189       101        26        27       102
 -3
    1PSTEP                         1           1           1          
  100CL  101 1.000000000         261                     0    1           1
 -4  DISP        4    1
 -5  D1          1    2    1    0
 -5  D2          1    2    2    0
 -5  D3          1    2    3    0
 -5  ALL         1    2    0    0    1ALL
 -1         1 0.00000E+00 0.00000E+00 0.00000E+00
 -1         2 0.00000E+00 0.00000E+00 0.00000E+00
 -1         3 0.00000E+00 0.00000E+00 0.00000E+00
 -1         4 0.00000E+00 0.00000E+00 0.00000E+00
 -1         5-3.37882E-08 2.63956E-05 3.65218E-06
 -1         6 3.37882E-08 2.63956E-05 3.65218E-06
 -1         7-3.37882E-08 2.63956E-05-3.65218E-06
 -1         8 3.37882E-08 2.63956E-05-3.65218E-06
 -1         9 0.00000E+00 0.00000E+00 0.00000E+00
 -1        10 0.00000E+00 0.00000E+00 0.00000E+00
 -1        11 0.00000E+00 0.00000E+00 0.00000E+00
 -1        12 0.00000E+00 0.00000E+00 0.00000E+00
 -1        13 0.00000E+00 0.00000E+00 0.00000E+00
 -1        14 0.00000E+00 0.00000E+00 0.00000E+00
 -1        15 0.00000E+00 0.00000E+00 0.00000E+00
 -1        16 0.00000E+00 0.00000E+00 0.00000E+00
 -1        17 0.00000E+00 0.00000E+00 0.00000E+00
 -1        18 0.00000E+00 0.00000E+00 0.00000E+00
 -1        19 0.00000E+00 0.00000E+00 0.00000E+00
 -1        20 0.00000E+00 0.00000E+00 0.00000E+00
 -1        21-1.53099E-08 2.63347E-05 3.64677E-06
 -1        22 7.60088E-17 2.63236E-05 3.63533E-06
 -1        23 1.53099E-08 2.63347E-05 3.64677E-06
 -1        24-1.48373E-09 2.63296E-05 1.79675E-06
 -1        25 7.62427E-17 2.62953E-05-6.90859E-18
 -1        26 1.48373E-09 2.63296E-05-1.79675E-06
 -1        27-1.53099E-08 2.63347E-05-3.64677E-06
 -1        28 7.65359E-17 2.63236E-05-3.63533E-06
 -1        29 1.53099E-08 2.63347E-05-3.64677E-06
 -1        30-1.48373E-09 2.63296E-05-1.79675E-06
 -1        31 7.62890E-17 2.62953E-05 7.11047E-18
 -1        32 1.48373E-09 2.63296E-05 1.79675E-06
 -1        33-1.43209E-07 2.12575E-07 4.13231E-07
 -1        34-9.89222E-08 6.42269E-07 8.26095E-07
 -1        35-1.12026E-07 1.37756E-06 1.21461E-06
 -1        36-1.00294E-07 2.33270E-06 1.57186E-06
 -1        37-9.47439E-08 3.53387E-06 1.89891E-06
 -1        38-8.50624E-08 4.93548E-06 2.19860E-06
 -1        39-7.71386E-08 6.53089E-06 2.47026E-06
 -1        40-6.84481E-08 8.29604E-06 2.71344E-06
 -1        41-6.01251E-08 1.02139E-05 2.92737E-06
 -1        42-5.19675E-08 1.22654E-05 3.11293E-06
 -1        43-4.21486E-08 1.44310E-05 3.27056E-06
 -1        44-3.34946E-08 1.66968E-05 3.40036E-06
 -1        45-2.71238E-08 1.90244E-05 3.49780E-06
 -1        46-2.52534E-08 2.14234E-05 3.56778E-06
 -1        47 2.94156E-09 2.38585E-05 3.61660E-06
 -1        48-2.94156E-09 2.38585E-05 3.61660E-06
 -1        49 2.52534E-08 2.14234E-05 3.56778E-06
 -1        50 2.71238E-08 1.90244E-05 3.49780E-06
 -1        51 3.34946E-08 1.66968E-05 3.40036E-06
 -1        52 4.21486E-08 1.44310E-05 3.27056E-06
 -1        53 5.19675E-08 1.22654E-05 3.11293E-06
 -1        54 6.01251E-08 1.02139E-05 2.92737E-06
 -1        55 6.84481E-08 8.29604E-06 2.71344E-06
 -1        56 7.71386E-08 6.53089E-06 2.47026E-06
 -1        57 8.50624E-08 4.93548E-06 2.19860E-06
 -1        58 9.47439E-08 3.53387E-06 1.89891E-06
 -1        59 1.00294E-07 2.33270E-06 1.57186E-06
 -1        60 1.12026E-07 1.37756E-06 1.21461E-06
 -1        61 9.89222E-08 6.42269E-07 8.26095E-07
 -1        62 1.43209E-07 2.12575E-07 4.13231E-07
 -1        63 1.43209E-07 2.12575E-07-4.13231E-07
 -1        64 9.89222E-08 6.42269E-07-8.26095E-07
 -1        65 1.12026E-07 1.37756E-06-1.21461E-06
 -1        66 1.00294E-07 2.33270E-06-1.57186E-06
 -1        67 9.47439E-08 3.53387E-06-1.89891E-06
 -1        68 8.50624E-08 4.93548E-06-2.19860E-06
 -1        69 7.71386E-08 6.53089E-06-2.47026E-06
 -1        70 6.84481E-08 8.29604E-06-2.71344E-06
 -1        71 6.01251E-08 1.02139E-05-2.92737E-06
 -1        72 5.19675E-08 1.22654E-05-3.11293E-06
 -1        73 4.21486E-08 1.44310E-05-3.27056E-06
 -1        74 3.34946E-08 1.66968E-05-3.40036E-06
 -1        75 2.71238E-08 1.90244E-05-3.49780E-06
 -1        76 2.52534E-08 2.14234E-05-3.56778E-06
 -1        77-2.94156E-09 2.38585E-05-3.61660E-06
 -1        78-1.43209E-07 2.12575E-07-4.13231E-07
 -1        79-9.89222E-08 6.42269E-07-8.26095E-07
 -1        80-1.12026E-07 1.37756E-06-1.21461E-06
 -1        81-1.00294E-07 2.33270E-06-1.57186E-06
 -1        82-9.47439E-08 3.53387E-06-1.89891E-06
 -1        83-8.50624E-08 4.93548E-06-2.19860E-06
 -1        84-7.71386E-08 6.53089E-06-2.47026E-06
 -1        85-6.84481E-08 8.29604E-06-2.71344E-06
 -1        86-6.01251E-08 1.02139E-05-2.92737E-06
 -1        87-5.19675E-08 1.22654E-05-3.11293E-06
 -1        88-4.21486E-08 1.44310E-05-3.27056E-06
 -1        89-3.34946E-08 1.66968E-05-3.40036E-06
 -1        90-2.71238E-08 1.90244E-05-3.49780E-06
 -1        91-2.52534E-08 2.14234E-05-3.56778E-06
 -1        92 2.94156E-09 2.38585E-05-3.61660E-06
 -1        93 0.00000E+00 0.00000E+00 0.00000E+00
 -1        94 0.00000E+00 0.00000E+00 0.00000E+00
 -1        95 0.00000E+00 0.00000E+00 0.00000E+00
 -1        96 0.00000E+00 0.00000E+00 0.00000E+00
 -1        97 0.00000E+00 0.00000E+00 0.00000E+00
 -1        98 7.60985E-17 2.63026E-05 1.80212E-06
 -1        99 7.62481E-17 2.62943E-05 3.57470E-18
 -1       100 7.62160E-17 2.62864E-05 6.93268E-20
 -1       101 7.62270E-17 2.62943E-05-3.41658E-18
 -1       102 7.63528E-17 2.63026E-05-1.80212E-06
 -1       103 2.23700E-19 2.53728E-07 3.97908E-07
 -1       104 4.93721E-08 6.75457E-07 8.33250E-07
 -1       105 1.48278E-18 6.83172E-07 8.40144E-07
 -1       106-4.93721E-08 6.75457E-07 8.33250E-07
 -1       107 3.49975E-18 1.41266E-06 1.21564E-06
 -1       108 5.00218E-08 2.35872E-06 1.57505E-06
 -1       109 6.32163E-18 2.36926E-06 1.57623E-06
 -1       110-5.00218E-08 2.35872E-06 1.57505E-06
 -1       111 9.78623E-18 3.56458E-06 1.90137E-06
 -1       112 4.25432E-08 4.95759E-06 2.20114E-06
 -1       113 1.38847E-17 4.96494E-06 2.20151E-06
 -1       114-4.25432E-08 4.95759E-06 2.20114E-06
 -1       115 1.85181E-17 6.55637E-06 2.47290E-06
 -1       116 3.42191E-08 8.31301E-06 2.71580E-06
 -1       117 2.36558E-17 8.31888E-06 2.71608E-06
 -1       118-3.42191E-08 8.31301E-06 2.71580E-06
 -1       119 2.92175E-17 1.02341E-05 2.93007E-06
 -1       120 2.59695E-08 1.22785E-05 3.11547E-06
 -1       121 3.51674E-17 1.22821E-05 3.11578E-06
 -1       122-2.59695E-08 1.22785E-05 3.11547E-06
 -1       123 4.14739E-17 1.44454E-05 3.27311E-06
 -1       124 1.68399E-08 1.67015E-05 3.40232E-06
 -1       125 4.80395E-17 1.67038E-05 3.40229E-06
 -1       126-1.68399E-08 1.67015E-05 3.40232E-06
 -1       127 5.48750E-17 1.90371E-05 3.50068E-06
 -1       128 1.21735E-08 2.14319E-05 3.57126E-06
 -1       129 6.18546E-17 2.14248E-05 3.57251E-06
 -1       130-1.21735E-08 2.14319E-05 3.57126E-06
 -1       131 6.89129E-17 2.38594E-05 3.61816E-06
 -1       132 6.24076E-19 1.00197E-07-7.95014E-19
 -1       133-4.97134E-08 5.82788E-07 4.03213E-07
 -1       134 1.85321E-18 5.82066E-07-1.65095E-18
 -1       135 4.97134E-08 5.82788E-07-4.03213E-07
 -1       136 3.96525E-18 1.28638E-06-2.39869E-18
 -1       137-5.01532E-08 2.28152E-06 7.75540E-07
 -1       138 6.75519E-18 2.26522E-06-3.10350E-18
 -1       139 5.01532E-08 2.28152E-06-7.75540E-07
 -1       140 1.02539E-17 3.46125E-06-3.74665E-18
 -1       141-4.25428E-08 4.88796E-06 1.08988E-06
 -1       142 1.43491E-17 4.87352E-06-4.33091E-18
 -1       143 4.25428E-08 4.88796E-06-1.08988E-06
 -1       144 1.90124E-17 6.47261E-06-4.85003E-18
 -1       145-3.42755E-08 8.25768E-06 1.34688E-06
 -1       146 2.41596E-17 8.24488E-06-5.30846E-18
 -1       147 3.42755E-08 8.25768E-06-1.34688E-06
 -1       148 2.97393E-17 1.01691E-05-5.70813E-18
 -1       149-2.57363E-08 1.22363E-05 1.54708E-06
 -1       150 3.56973E-17 1.22262E-05-6.05750E-18
 -1       151 2.57363E-08 1.22363E-05-1.54708E-06
 -1       152 4.19884E-17 1.43994E-05-6.34702E-18
 -1       153-1.78184E-08 1.66735E-05 1.68934E-06
 -1       154 4.85492E-17 1.66647E-05-6.57479E-18
 -1       155 1.78184E-08 1.66735E-05-1.68934E-06
 -1       156 5.52888E-17 1.90098E-05-6.74679E-18
 -1       157-8.29632E-09 2.14132E-05 1.77811E-06
 -1       158 6.22103E-17 2.14022E-05-6.85764E-18
 -1       159 8.29632E-09 2.14132E-05-1.77811E-06
 -1       160 6.92034E-17 2.38579E-05-6.89825E-18
 -1       161 2.79121E-19 2.53728E-07-3.97908E-07